<PP_INFO>
CASTEP .usp generator                                                           
 13-09-2020                                                                     
COMMENT                                                                         
    0        The Pseudo was generated with a Non-Relativistic Calculation
  5.99000000000E-01    Local Potential cutoff radius
</PP_INFO>


<PP_HEADER>
   0                   Version Number
  H                    Element
   US                  Ultrasoft pseudopotential
    F                  Nonlinear Core Correction
SLA  PW   PBE  PBE     PBE  Exchange-Correlation functional
    1.00000000000      Z valence
    0.00000000000      Total energy
 68.0590777 17.0147694 Suggested cutoff for wfc and rho
    0                  Max angular momentum component
 2546                  Number of points in mesh
    0    2             Number of Wavefunctions, Number of Projectors
 Wavefunctions         nl  l   occ
</PP_HEADER>


<PP_MESH>
  <PP_R>
  0.00000000000E+00  1.03603293134E-05  2.07639167240E-05  3.12109428500E-05
  4.17015890636E-05  5.22360374944E-05  6.28144710322E-05  7.34370733309E-05
  8.41040288107E-05  9.48155226622E-05  1.05571740849E-04  1.16372870111E-04
  1.27219097969E-04  1.38110612725E-04  1.49047603469E-04  1.60030260078E-04
  1.71058773225E-04  1.82133334376E-04  1.93254135800E-04  2.04421370565E-04
  2.15635232547E-04  2.26895916432E-04  2.38203617718E-04  2.49558532720E-04
  2.60960858572E-04  2.72410793230E-04  2.83908535480E-04  2.95454284935E-04
  3.07048242042E-04  3.18690608086E-04  3.30381585191E-04  3.42121376325E-04
  3.53910185306E-04  3.65748216800E-04  3.77635676329E-04  3.89572770272E-04
  4.01559705871E-04  4.13596691233E-04  4.25683935334E-04  4.37821648022E-04
  4.50010040021E-04  4.62249322937E-04  4.74539709255E-04  4.86881412353E-04
  4.99274646495E-04  5.11719626842E-04  5.24216569454E-04  5.36765691291E-04
  5.49367210221E-04  5.62021345020E-04  5.74728315378E-04  5.87488341903E-04
  6.00301646123E-04  6.13168450492E-04  6.26088978392E-04  6.39063454139E-04
  6.52092102983E-04  6.65175151117E-04  6.78312825678E-04  6.91505354750E-04
  7.04752967371E-04  7.18055893535E-04  7.31414364195E-04  7.44828611270E-04
  7.58298867645E-04  7.71825367181E-04  7.85408344713E-04  7.99048036056E-04
  8.12744678010E-04  8.26498508366E-04  8.40309765906E-04  8.54178690408E-04
  8.68105522652E-04  8.82090504425E-04  8.96133878522E-04  9.10235888751E-04
  9.24396779940E-04  9.38616797937E-04  9.52896189618E-04  9.67235202891E-04
  9.81634086695E-04  9.96093091013E-04  1.01061246687E-03  1.02519246634E-03
  1.03983334254E-03  1.05453534966E-03  1.06929874294E-03  1.08412377870E-03
  1.09901071430E-03  1.11395980821E-03  1.12897131996E-03  1.14404551017E-03
  1.15918264053E-03  1.17438297385E-03  1.18964677403E-03  1.20497430605E-03
  1.22036583603E-03  1.23582163117E-03  1.25134195982E-03  1.26692709141E-03
  1.28257729652E-03  1.29829284687E-03  1.31407401528E-03  1.32992107575E-03
  1.34583430338E-03  1.36181397446E-03  1.37786036640E-03  1.39397375780E-03
  1.41015442839E-03  1.42640265910E-03  1.44271873201E-03  1.45910293038E-03
  1.47555553867E-03  1.49207684251E-03  1.50866712874E-03  1.52532668536E-03
  1.54205580162E-03  1.55885476796E-03  1.57572387601E-03  1.59266341865E-03
  1.60967368996E-03  1.62675498527E-03  1.64390760113E-03  1.66113183532E-03
  1.67842798687E-03  1.69579635608E-03  1.71323724446E-03  1.73075095482E-03
  1.74833779122E-03  1.76599805897E-03  1.78373206469E-03  1.80154011625E-03
  1.81942252283E-03  1.83737959487E-03  1.85541164415E-03  1.87351898371E-03
  1.89170192792E-03  1.90996079245E-03  1.92829589431E-03  1.94670755180E-03
  1.96519608458E-03  1.98376181362E-03  2.00240506125E-03  2.02112615114E-03
  2.03992540831E-03  2.05880315913E-03  2.07775973134E-03  2.09679545406E-03
  2.11591065775E-03  2.13510567429E-03  2.15438083692E-03  2.17373648027E-03
  2.19317294040E-03  2.21269055472E-03  2.23228966210E-03  2.25197060280E-03
  2.27173371849E-03  2.29157935229E-03  2.31150784875E-03  2.33151955383E-03
  2.35161481498E-03  2.37179398106E-03  2.39205740241E-03  2.41240543082E-03
  2.43283841956E-03  2.45335672337E-03  2.47396069848E-03  2.49465070258E-03
  2.51542709488E-03  2.53629023609E-03  2.55724048840E-03  2.57827821555E-03
  2.59940378276E-03  2.62061755681E-03  2.64191990599E-03  2.66331120013E-03
  2.68479181061E-03  2.70636211035E-03  2.72802247385E-03  2.74977327715E-03
  2.77161489786E-03  2.79354771519E-03  2.81557210991E-03  2.83768846439E-03
  2.85989716260E-03  2.88219859010E-03  2.90459313408E-03  2.92708118332E-03
  2.94966312825E-03  2.97233936091E-03  2.99511027499E-03  3.01797626582E-03
  3.04093773038E-03  3.06399506730E-03  3.08714867688E-03  3.11039896111E-03
  3.13374632362E-03  3.15719116976E-03  3.18073390656E-03  3.20437494274E-03
  3.22811468875E-03  3.25195355672E-03  3.27589196053E-03  3.29993031578E-03
  3.32406903979E-03  3.34830855166E-03  3.37264927219E-03  3.39709162398E-03
  3.42163603137E-03  3.44628292047E-03  3.47103271920E-03  3.49588585723E-03
  3.52084276604E-03  3.54590387890E-03  3.57106963092E-03  3.59634045900E-03
  3.62171680186E-03  3.64719910007E-03  3.67278779604E-03  3.69848333400E-03
  3.72428616006E-03  3.75019672220E-03  3.77621547024E-03  3.80234285590E-03
  3.82857933279E-03  3.85492535639E-03  3.88138138411E-03  3.90794787524E-03
  3.93462529103E-03  3.96141409461E-03  3.98831475107E-03  4.01532772743E-03
  4.04245349268E-03  4.06969251774E-03  4.09704527552E-03  4.12451224089E-03
  4.15209389071E-03  4.17979070383E-03  4.20760316109E-03  4.23553174536E-03
  4.26357694150E-03  4.29173923641E-03  4.32001911902E-03  4.34841708030E-03
  4.37693361327E-03  4.40556921301E-03  4.43432437667E-03  4.46319960347E-03
  4.49219539472E-03  4.52131225381E-03  4.55055068625E-03  4.57991119965E-03
  4.60939430374E-03  4.63900051039E-03  4.66873033358E-03  4.69858428947E-03
  4.72856289636E-03  4.75866667469E-03  4.78889614712E-03  4.81925183845E-03
  4.84973427571E-03  4.88034398809E-03  4.91108150702E-03  4.94194736613E-03
  4.97294210130E-03  5.00406625062E-03  5.03532035444E-03  5.06670495538E-03
  5.09822059831E-03  5.12986783036E-03  5.16164720098E-03  5.19355926189E-03
  5.22560456713E-03  5.25778367302E-03  5.29009713824E-03  5.32254552379E-03
  5.35512939301E-03  5.38784931159E-03  5.42070584759E-03  5.45369957143E-03
  5.48683105592E-03  5.52010087626E-03  5.55350961005E-03  5.58705783732E-03
  5.62074614048E-03  5.65457510442E-03  5.68854531643E-03  5.72265736628E-03
  5.75691184620E-03  5.79130935088E-03  5.82585047750E-03  5.86053582573E-03
  5.89536599776E-03  5.93034159826E-03  5.96546323447E-03  6.00073151612E-03
  6.03614705553E-03  6.07171046753E-03  6.10742236956E-03  6.14328338161E-03
  6.17929412626E-03  6.21545522872E-03  6.25176731677E-03  6.28823102084E-03
  6.32484697397E-03  6.36161581186E-03  6.39853817286E-03  6.43561469798E-03
  6.47284603092E-03  6.51023281805E-03  6.54777570845E-03  6.58547535390E-03
  6.62333240892E-03  6.66134753074E-03  6.69952137936E-03  6.73785461751E-03
  6.77634791071E-03  6.81500192723E-03  6.85381733816E-03  6.89279481737E-03
  6.93193504157E-03  6.97123869026E-03  7.01070644581E-03  7.05033899342E-03
  7.09013702116E-03  7.13010121996E-03  7.17023228365E-03  7.21053090895E-03
  7.25099779548E-03  7.29163364581E-03  7.33243916542E-03  7.37341506273E-03
  7.41456204913E-03  7.45588083898E-03  7.49737214963E-03  7.53903670141E-03
  7.58087521766E-03  7.62288842475E-03  7.66507705207E-03  7.70744183207E-03
  7.74998350025E-03  7.79270279518E-03  7.83560045851E-03  7.87867723500E-03
  7.92193387251E-03  7.96537112202E-03  8.00898973765E-03  8.05279047668E-03
  8.09677409953E-03  8.14094136981E-03  8.18529305431E-03  8.22982992303E-03
  8.27455274917E-03  8.31946230919E-03  8.36455938275E-03  8.40984475280E-03
  8.45531920554E-03  8.50098353046E-03  8.54683852034E-03  8.59288497128E-03
  8.63912368269E-03  8.68555545734E-03  8.73218110133E-03  8.77900142414E-03
  8.82601723862E-03  8.87322936101E-03  8.92063861098E-03  8.96824581160E-03
  9.01605178939E-03  9.06405737431E-03  9.11226339980E-03  9.16067070276E-03
  9.20928012360E-03  9.25809250625E-03  9.30710869812E-03  9.35632955021E-03
  9.40575591705E-03  9.45538865672E-03  9.50522863091E-03  9.55527670490E-03
  9.60553374758E-03  9.65600063148E-03  9.70667823274E-03  9.75756743120E-03
  9.80866911035E-03  9.85998415736E-03  9.91151346314E-03  9.96325792228E-03
  1.00152184331E-02  1.00673958978E-02  1.01197912221E-02  1.01724053157E-02
  1.02252390921E-02  1.02782934684E-02  1.03315693659E-02  1.03850677093E-02
  1.04387894276E-02  1.04927354533E-02  1.05469067231E-02  1.06013041774E-02
  1.06559287606E-02  1.07107814211E-02  1.07658631111E-02  1.08211747870E-02
  1.08767174090E-02  1.09324919414E-02  1.09884993525E-02  1.10447406147E-02
  1.11012167044E-02  1.11579286020E-02  1.12148772922E-02  1.12720637636E-02
  1.13294890090E-02  1.13871540256E-02  1.14450598142E-02  1.15032073804E-02
  1.15615977335E-02  1.16202318873E-02  1.16791108598E-02  1.17382356732E-02
  1.17976073539E-02  1.18572269327E-02  1.19170954446E-02  1.19772139291E-02
  1.20375834299E-02  1.20982049950E-02  1.21590796770E-02  1.22202085326E-02
  1.22815926231E-02  1.23432330143E-02  1.24051307763E-02  1.24672869836E-02
  1.25297027155E-02  1.25923790555E-02  1.26553170917E-02  1.27185179168E-02
  1.27819826280E-02  1.28457123273E-02  1.29097081209E-02  1.29739711200E-02
  1.30385024401E-02  1.31033032018E-02  1.31683745298E-02  1.32337175541E-02
  1.32993334090E-02  1.33652232336E-02  1.34313881719E-02  1.34978293726E-02
  1.35645479892E-02  1.36315451800E-02  1.36988221081E-02  1.37663799416E-02
  1.38342198533E-02  1.39023430210E-02  1.39707506274E-02  1.40394438602E-02
  1.41084239119E-02  1.41776919800E-02  1.42472492673E-02  1.43170969812E-02
  1.43872363344E-02  1.44576685446E-02  1.45283948346E-02  1.45994164323E-02
  1.46707345707E-02  1.47423504879E-02  1.48142654273E-02  1.48864806374E-02
  1.49589973719E-02  1.50318168899E-02  1.51049404555E-02  1.51783693383E-02
  1.52521048131E-02  1.53261481599E-02  1.54005006644E-02  1.54751636172E-02
  1.55501383147E-02  1.56254260585E-02  1.57010281557E-02  1.57769459188E-02
  1.58531806659E-02  1.59297337204E-02  1.60066064114E-02  1.60838000735E-02
  1.61613160469E-02  1.62391556773E-02  1.63173203161E-02  1.63958113204E-02
  1.64746300529E-02  1.65537778819E-02  1.66332561815E-02  1.67130663315E-02
  1.67932097176E-02  1.68736877312E-02  1.69545017693E-02  1.70356532351E-02
  1.71171435374E-02  1.71989740911E-02  1.72811463166E-02  1.73636616408E-02
  1.74465214961E-02  1.75297273210E-02  1.76132805602E-02  1.76971826641E-02
  1.77814350895E-02  1.78660392990E-02  1.79509967615E-02  1.80363089519E-02
  1.81219773514E-02  1.82080034472E-02  1.82943887329E-02  1.83811347082E-02
  1.84682428791E-02  1.85557147579E-02  1.86435518632E-02  1.87317557200E-02
  1.88203278596E-02  1.89092698197E-02  1.89985831445E-02  1.90882693844E-02
  1.91783300967E-02  1.92687668448E-02  1.93595811987E-02  1.94507747353E-02
  1.95423490376E-02  1.96343056956E-02  1.97266463056E-02  1.98193724708E-02
  1.99124858011E-02  2.00059879130E-02  2.00998804299E-02  2.01941649817E-02
  2.02888432054E-02  2.03839167447E-02  2.04793872502E-02  2.05752563793E-02
  2.06715257965E-02  2.07681971731E-02  2.08652721875E-02  2.09627525249E-02
  2.10606398777E-02  2.11589359454E-02  2.12576424345E-02  2.13567610587E-02
  2.14562935387E-02  2.15562416026E-02  2.16566069856E-02  2.17573914301E-02
  2.18585966858E-02  2.19602245099E-02  2.20622766667E-02  2.21647549278E-02
  2.22676610726E-02  2.23709968874E-02  2.24747641665E-02  2.25789647112E-02
  2.26836003306E-02  2.27886728413E-02  2.28941840675E-02  2.30001358409E-02
  2.31065300011E-02  2.32133683952E-02  2.33206528779E-02  2.34283853119E-02
  2.35365675675E-02  2.36452015229E-02  2.37542890640E-02  2.38638320849E-02
  2.39738324872E-02  2.40842921808E-02  2.41952130832E-02  2.43065971203E-02
  2.44184462257E-02  2.45307623413E-02  2.46435474171E-02  2.47568034111E-02
  2.48705322896E-02  2.49847360270E-02  2.50994166060E-02  2.52145760176E-02
  2.53302162612E-02  2.54463393443E-02  2.55629472830E-02  2.56800421018E-02
  2.57976258335E-02  2.59157005195E-02  2.60342682098E-02  2.61533309627E-02
  2.62728908455E-02  2.63929499337E-02  2.65135103117E-02  2.66345740727E-02
  2.67561433183E-02  2.68782201592E-02  2.70008067148E-02  2.71239051133E-02
  2.72475174918E-02  2.73716459965E-02  2.74962927822E-02  2.76214600131E-02
  2.77471498621E-02  2.78733645114E-02  2.80001061522E-02  2.81273769849E-02
  2.82551792190E-02  2.83835150734E-02  2.85123867761E-02  2.86417965644E-02
  2.87717466851E-02  2.89022393943E-02  2.90332769574E-02  2.91648616494E-02
  2.92969957548E-02  2.94296815675E-02  2.95629213912E-02  2.96967175390E-02
  2.98310723338E-02  2.99659881082E-02  3.01014672044E-02  3.02375119744E-02
  3.03741247803E-02  3.05113079937E-02  3.06490639964E-02  3.07873951798E-02
  3.09263039456E-02  3.10657927055E-02  3.12058638810E-02  3.13465199040E-02
  3.14877632164E-02  3.16295962705E-02  3.17720215284E-02  3.19150414630E-02
  3.20586585572E-02  3.22028753044E-02  3.23476942083E-02  3.24931177832E-02
  3.26391485538E-02  3.27857890552E-02  3.29330418335E-02  3.30809094450E-02
  3.32293944569E-02  3.33784994471E-02  3.35282270043E-02  3.36785797277E-02
  3.38295602278E-02  3.39811711257E-02  3.41334150536E-02  3.42862946546E-02
  3.44398125829E-02  3.45939715036E-02  3.47487740933E-02  3.49042230394E-02
  3.50603210406E-02  3.52170708072E-02  3.53744750603E-02  3.55325365327E-02
  3.56912579686E-02  3.58506421235E-02  3.60106917645E-02  3.61714096702E-02
  3.63327986310E-02  3.64948614486E-02  3.66576009367E-02  3.68210199207E-02
  3.69851212377E-02  3.71499077366E-02  3.73153822783E-02  3.74815477357E-02
  3.76484069936E-02  3.78159629489E-02  3.79842185105E-02  3.81531765994E-02
  3.83228401492E-02  3.84932121051E-02  3.86642954253E-02  3.88360930797E-02
  3.90086080511E-02  3.91818433345E-02  3.93558019374E-02  3.95304868800E-02
  3.97059011950E-02  3.98820479278E-02  4.00589301364E-02  4.02365508919E-02
  4.04149132778E-02  4.05940203908E-02  4.07738753403E-02  4.09544812489E-02
  4.11358412520E-02  4.13179584982E-02  4.15008361495E-02  4.16844773806E-02
  4.18688853798E-02  4.20540633487E-02  4.22400145022E-02  4.24267420685E-02
  4.26142492895E-02  4.28025394205E-02  4.29916157305E-02  4.31814815020E-02
  4.33721400313E-02  4.35635946285E-02  4.37558486174E-02  4.39489053357E-02
  4.41427681353E-02  4.43374403817E-02  4.45329254546E-02  4.47292267480E-02
  4.49263476698E-02  4.51242916423E-02  4.53230621019E-02  4.55226624997E-02
  4.57230963008E-02  4.59243669851E-02  4.61264780468E-02  4.63294329948E-02
  4.65332353526E-02  4.67378886585E-02  4.69433964655E-02  4.71497623414E-02
  4.73569898690E-02  4.75650826459E-02  4.77740442850E-02  4.79838784140E-02
  4.81945886759E-02  4.84061787288E-02  4.86186522462E-02  4.88320129169E-02
  4.90462644451E-02  4.92614105503E-02  4.94774549679E-02  4.96944014485E-02
  4.99122537586E-02  5.01310156804E-02  5.03506910118E-02  5.05712835666E-02
  5.07927971747E-02  5.10152356816E-02  5.12386029492E-02  5.14629028554E-02
  5.16881392943E-02  5.19143161762E-02  5.21414374279E-02  5.23695069925E-02
  5.25985288294E-02  5.28285069147E-02  5.30594452412E-02  5.32913478182E-02
  5.35242186718E-02  5.37580618448E-02  5.39928813971E-02  5.42286814055E-02
  5.44654659635E-02  5.47032391822E-02  5.49420051895E-02  5.51817681306E-02
  5.54225321682E-02  5.56643014821E-02  5.59070802698E-02  5.61508727462E-02
  5.63956831437E-02  5.66415157126E-02  5.68883747209E-02  5.71362644541E-02
  5.73851892161E-02  5.76351533284E-02  5.78861611306E-02  5.81382169806E-02
  5.83913252544E-02  5.86454903461E-02  5.89007166684E-02  5.91570086523E-02
  5.94143707474E-02  5.96728074216E-02  5.99323231618E-02  6.01929224735E-02
  6.04546098809E-02  6.07173899273E-02  6.09812671748E-02  6.12462462046E-02
  6.15123316170E-02  6.17795280317E-02  6.20478400873E-02  6.23172724423E-02
  6.25878297741E-02  6.28595167799E-02  6.31323381767E-02  6.34062987008E-02
  6.36814031085E-02  6.39576561759E-02  6.42350626992E-02  6.45136274944E-02
  6.47933553976E-02  6.50742512654E-02  6.53563199744E-02  6.56395664215E-02
  6.59239955244E-02  6.62096122209E-02  6.64964214698E-02  6.67844282503E-02
  6.70736375626E-02  6.73640544277E-02  6.76556838876E-02  6.79485310052E-02
  6.82426008647E-02  6.85378985716E-02  6.88344292525E-02  6.91321980556E-02
  6.94312101504E-02  6.97314707281E-02  7.00329850016E-02  7.03357582055E-02
  7.06397955963E-02  7.09451024525E-02  7.12516840745E-02  7.15595457849E-02
  7.18686929286E-02  7.21791308727E-02  7.24908650067E-02  7.28039007428E-02
  7.31182435155E-02  7.34338987822E-02  7.37508720231E-02  7.40691687411E-02
  7.43887944623E-02  7.47097547358E-02  7.50320551336E-02  7.53557012515E-02
  7.56806987082E-02  7.60070531460E-02  7.63347702309E-02  7.66638556523E-02
  7.69943151236E-02  7.73261543819E-02  7.76593791884E-02  7.79939953281E-02
  7.83300086105E-02  7.86674248690E-02  7.90062499617E-02  7.93464897708E-02
  7.96881502034E-02  8.00312371911E-02  8.03757566902E-02  8.07217146820E-02
  8.10691171727E-02  8.14179701936E-02  8.17682798012E-02  8.21200520773E-02
  8.24732931291E-02  8.28280090891E-02  8.31842061158E-02  8.35418903930E-02
  8.39010681305E-02  8.42617455642E-02  8.46239289557E-02  8.49876245931E-02
  8.53528387904E-02  8.57195778881E-02  8.60878482534E-02  8.64576562798E-02
  8.68290083875E-02  8.72019110238E-02  8.75763706625E-02  8.79523938047E-02
  8.83299869787E-02  8.87091567398E-02  8.90899096709E-02  8.94722523823E-02
  8.98561915119E-02  9.02417337253E-02  9.06288857160E-02  9.10176542053E-02
  9.14080459428E-02  9.18000677060E-02  9.21937263010E-02  9.25890285620E-02
  9.29859813519E-02  9.33845915624E-02  9.37848661138E-02  9.41868119552E-02
  9.45904360649E-02  9.49957454503E-02  9.54027471480E-02  9.58114482240E-02
  9.62218557739E-02  9.66339769227E-02  9.70478188254E-02  9.74633886667E-02
  9.78806936615E-02  9.82997410545E-02  9.87205381209E-02  9.91430921663E-02
  9.95674105266E-02  9.99935005686E-02  1.00421369690E-01  1.00851025318E-01
  1.01282474913E-01  1.01715725965E-01  1.02150785995E-01  1.02587662558E-01
  1.03026363238E-01  1.03466895650E-01  1.03909267443E-01  1.04353486298E-01
  1.04799559926E-01  1.05247496071E-01  1.05697302511E-01  1.06148987055E-01
  1.06602557543E-01  1.07058021852E-01  1.07515387887E-01  1.07974663590E-01
  1.08435856934E-01  1.08898975926E-01  1.09364028607E-01  1.09831023049E-01
  1.10299967361E-01  1.10770869684E-01  1.11243738193E-01  1.11718581098E-01
  1.12195406643E-01  1.12674223106E-01  1.13155038799E-01  1.13637862071E-01
  1.14122701304E-01  1.14609564914E-01  1.15098461355E-01  1.15589399115E-01
  1.16082386716E-01  1.16577432717E-01  1.17074545713E-01  1.17573734334E-01
  1.18075007248E-01  1.18578373156E-01  1.19083840797E-01  1.19591418947E-01
  1.20101116419E-01  1.20612942061E-01  1.21126904758E-01  1.21643013435E-01
  1.22161277050E-01  1.22681704603E-01  1.23204305127E-01  1.23729087697E-01
  1.24256061422E-01  1.24785235452E-01  1.25316618973E-01  1.25850221212E-01
  1.26386051432E-01  1.26924118935E-01  1.27464433064E-01  1.28007003198E-01
  1.28551838757E-01  1.29098949201E-01  1.29648344027E-01  1.30200032775E-01
  1.30754025020E-01  1.31310330383E-01  1.31868958520E-01  1.32429919131E-01
  1.32993221953E-01  1.33558876768E-01  1.34126893394E-01  1.34697281694E-01
  1.35270051570E-01  1.35845212966E-01  1.36422775867E-01  1.37002750301E-01
  1.37585146337E-01  1.38169974085E-01  1.38757243700E-01  1.39346965376E-01
  1.39939149352E-01  1.40533805908E-01  1.41130945370E-01  1.41730578103E-01
  1.42332714519E-01  1.42937365070E-01  1.43544540254E-01  1.44154250614E-01
  1.44766506733E-01  1.45381319241E-01  1.45998698812E-01  1.46618656165E-01
  1.47241202063E-01  1.47866347313E-01  1.48494102769E-01  1.49124479330E-01
  1.49757487940E-01  1.50393139588E-01  1.51031445310E-01  1.51672416188E-01
  1.52316063349E-01  1.52962397969E-01  1.53611431268E-01  1.54263174514E-01
  1.54917639022E-01  1.55574836155E-01  1.56234777322E-01  1.56897473980E-01
  1.57562937635E-01  1.58231179840E-01  1.58902212196E-01  1.59576046354E-01
  1.60252694011E-01  1.60932166915E-01  1.61614476863E-01  1.62299635700E-01
  1.62987655321E-01  1.63678547671E-01  1.64372324745E-01  1.65068998588E-01
  1.65768581294E-01  1.66471085010E-01  1.67176521930E-01  1.67884904304E-01
  1.68596244428E-01  1.69310554653E-01  1.70027847380E-01  1.70748135061E-01
  1.71471430203E-01  1.72197745361E-01  1.72927093147E-01  1.73659486221E-01
  1.74394937300E-01  1.75133459151E-01  1.75875064596E-01  1.76619766510E-01
  1.77367577823E-01  1.78118511516E-01  1.78872580627E-01  1.79629798248E-01
  1.80390177525E-01  1.81153731658E-01  1.81920473904E-01  1.82690417574E-01
  1.83463576036E-01  1.84239962712E-01  1.85019591081E-01  1.85802474679E-01
  1.86588627097E-01  1.87378061984E-01  1.88170793046E-01  1.88966834044E-01
  1.89766198800E-01  1.90568901190E-01  1.91374955152E-01  1.92184374678E-01
  1.92997173822E-01  1.93813366694E-01  1.94632967465E-01  1.95455990363E-01
  1.96282449678E-01  1.97112359757E-01  1.97945735009E-01  1.98782589902E-01
  1.99622938965E-01  2.00466796788E-01  2.01314178019E-01  2.02165097372E-01
  2.03019569619E-01  2.03877609595E-01  2.04739232196E-01  2.05604452380E-01
  2.06473285170E-01  2.07345745649E-01  2.08221848964E-01  2.09101610325E-01
  2.09985045006E-01  2.10872168344E-01  2.11762995741E-01  2.12657542662E-01
  2.13555824637E-01  2.14457857263E-01  2.15363656200E-01  2.16273237172E-01
  2.17186615971E-01  2.18103808456E-01  2.19024830548E-01  2.19949698238E-01
  2.20878427584E-01  2.21811034708E-01  2.22747535802E-01  2.23687947125E-01
  2.24632285002E-01  2.25580565830E-01  2.26532806071E-01  2.27489022256E-01
  2.28449230988E-01  2.29413448937E-01  2.30381692842E-01  2.31353979513E-01
  2.32330325830E-01  2.33310748744E-01  2.34295265276E-01  2.35283892518E-01
  2.36276647634E-01  2.37273547859E-01  2.38274610501E-01  2.39279852939E-01
  2.40289292625E-01  2.41302947085E-01  2.42320833917E-01  2.43342970791E-01
  2.44369375455E-01  2.45400065726E-01  2.46435059500E-01  2.47474374745E-01
  2.48518029504E-01  2.49566041897E-01  2.50618430118E-01  2.51675212438E-01
  2.52736407204E-01  2.53802032839E-01  2.54872107844E-01  2.55946650797E-01
  2.57025680353E-01  2.58109215245E-01  2.59197274284E-01  2.60289876361E-01
  2.61387040444E-01  2.62488785581E-01  2.63595130900E-01  2.64706095608E-01
  2.65821698993E-01  2.66941960423E-01  2.68066899347E-01  2.69196535295E-01
  2.70330887880E-01  2.71469976793E-01  2.72613821812E-01  2.73762442796E-01
  2.74915859684E-01  2.76074092502E-01  2.77237161359E-01  2.78405086446E-01
  2.79577888039E-01  2.80755586501E-01  2.81938202277E-01  2.83125755899E-01
  2.84318267983E-01  2.85515759235E-01  2.86718250442E-01  2.87925762482E-01
  2.89138316319E-01  2.90355933004E-01  2.91578633676E-01  2.92806439562E-01
  2.94039371980E-01  2.95277452333E-01  2.96520702116E-01  2.97769142914E-01
  2.99022796401E-01  3.00281684341E-01  3.01545828591E-01  3.02815251098E-01
  3.04089973899E-01  3.05370019126E-01  3.06655409002E-01  3.07946165843E-01
  3.09242312057E-01  3.10543870147E-01  3.11850862710E-01  3.13163312436E-01
  3.14481242112E-01  3.15804674617E-01  3.17133632929E-01  3.18468140119E-01
  3.19808219356E-01  3.21153893905E-01  3.22505187129E-01  3.23862122488E-01
  3.25224723540E-01  3.26593013940E-01  3.27967017445E-01  3.29346757907E-01
  3.30732259282E-01  3.32123545623E-01  3.33520641085E-01  3.34923569922E-01
  3.36332356490E-01  3.37747025249E-01  3.39167600759E-01  3.40594107681E-01
  3.42026570782E-01  3.43465014932E-01  3.44909465102E-01  3.46359946371E-01
  3.47816483921E-01  3.49279103038E-01  3.50747829115E-01  3.52222687652E-01
  3.53703704252E-01  3.55190904630E-01  3.56684314603E-01  3.58183960099E-01
  3.59689867154E-01  3.61202061912E-01  3.62720570627E-01  3.64245419661E-01
  3.65776635487E-01  3.67314244690E-01  3.68858273964E-01  3.70408750114E-01
  3.71965700060E-01  3.73529150831E-01  3.75099129571E-01  3.76675663536E-01
  3.78258780096E-01  3.79848506738E-01  3.81444871059E-01  3.83047900775E-01
  3.84657623715E-01  3.86274067828E-01  3.87897261175E-01  3.89527231938E-01
  3.91164008414E-01  3.92807619020E-01  3.94458092291E-01  3.96115456881E-01
  3.97779741564E-01  3.99450975233E-01  4.01129186903E-01  4.02814405710E-01
  4.04506660911E-01  4.06205981885E-01  4.07912398135E-01  4.09625939286E-01
  4.11346635086E-01  4.13074515410E-01  4.14809610256E-01  4.16551949745E-01
  4.18301564128E-01  4.20058483780E-01  4.21822739202E-01  4.23594361025E-01
  4.25373380005E-01  4.27159827029E-01  4.28953733111E-01  4.30755129395E-01
  4.32564047156E-01  4.34380517799E-01  4.36204572859E-01  4.38036244004E-01
  4.39875563035E-01  4.41722561883E-01  4.43577272615E-01  4.45439727431E-01
  4.47309958665E-01  4.49187998786E-01  4.51073880400E-01  4.52967636247E-01
  4.54869299205E-01  4.56778902289E-01  4.58696478652E-01  4.60622061585E-01
  4.62555684519E-01  4.64497381023E-01  4.66447184808E-01  4.68405129724E-01
  4.70371249764E-01  4.72345579061E-01  4.74328151893E-01  4.76319002678E-01
  4.78318165981E-01  4.80325676508E-01  4.82341569114E-01  4.84365878795E-01
  4.86398640697E-01  4.88439890110E-01  4.90489662473E-01  4.92547993371E-01
  4.94614918541E-01  4.96690473866E-01  4.98774695380E-01  5.00867619268E-01
  5.02969281865E-01  5.05079719659E-01  5.07198969288E-01  5.09327067546E-01
  5.11464051379E-01  5.13609957888E-01  5.15764824327E-01  5.17928688107E-01
  5.20101586797E-01  5.22283558119E-01  5.24474639955E-01  5.26674870345E-01
  5.28884287488E-01  5.31102929741E-01  5.33330835623E-01  5.35568043812E-01
  5.37814593149E-01  5.40070522636E-01  5.42335871440E-01  5.44610678889E-01
  5.46894984477E-01  5.49188827861E-01  5.51492248865E-01  5.53805287480E-01
  5.56127983862E-01  5.58460378335E-01  5.60802511394E-01  5.63154423700E-01
  5.65516156085E-01  5.67887749550E-01  5.70269245271E-01  5.72660684592E-01
  5.75062109032E-01  5.77473560281E-01  5.79895080205E-01  5.82326710846E-01
  5.84768494418E-01  5.87220473313E-01  5.89682690102E-01  5.92155187530E-01
  5.94638008523E-01  5.97131196187E-01  5.99634793804E-01  6.02148844841E-01
  6.04673392944E-01  6.07208481943E-01  6.09754155849E-01  6.12310458858E-01
  6.14877435351E-01  6.17455129893E-01  6.20043587235E-01  6.22642852318E-01
  6.25252970265E-01  6.27873986393E-01  6.30505946205E-01  6.33148895395E-01
  6.35802879848E-01  6.38467945639E-01  6.41144139037E-01  6.43831506504E-01
  6.46530094696E-01  6.49239950463E-01  6.51961120852E-01  6.54693653105E-01
  6.57437594661E-01  6.60192993160E-01  6.62959896437E-01  6.65738352530E-01
  6.68528409675E-01  6.71330116311E-01  6.74143521079E-01  6.76968672822E-01
  6.79805620589E-01  6.82654413633E-01  6.85515101411E-01  6.88387733588E-01
  6.91272360037E-01  6.94169030837E-01  6.97077796279E-01  6.99998706862E-01
  7.02931813295E-01  7.05877166502E-01  7.08834817617E-01  7.11804817988E-01
  7.14787219178E-01  7.17782072964E-01  7.20789431341E-01  7.23809346519E-01
  7.26841870928E-01  7.29887057217E-01  7.32944958252E-01  7.36015627122E-01
  7.39099117139E-01  7.42195481834E-01  7.45304774964E-01  7.48427050510E-01
  7.51562362679E-01  7.54710765902E-01  7.57872314840E-01  7.61047064380E-01
  7.64235069641E-01  7.67436385969E-01  7.70651068943E-01  7.73879174373E-01
  7.77120758303E-01  7.80375877011E-01  7.83644587009E-01  7.86926945046E-01
  7.90223008106E-01  7.93532833415E-01  7.96856478433E-01  8.00194000863E-01
  8.03545458649E-01  8.06910909974E-01  8.10290413269E-01  8.13684027204E-01
  8.17091810696E-01  8.20513822909E-01  8.23950123252E-01  8.27400771384E-01
  8.30865827212E-01  8.34345350892E-01  8.37839402834E-01  8.41348043699E-01
  8.44871334400E-01  8.48409336105E-01  8.51962110238E-01  8.55529718480E-01
  8.59112222768E-01  8.62709685299E-01  8.66322168529E-01  8.69949735173E-01
  8.73592448212E-01  8.77250370887E-01  8.80923566703E-01  8.84612099431E-01
  8.88316033109E-01  8.92035432041E-01  8.95770360799E-01  8.99520884227E-01
  9.03287067438E-01  9.07068975817E-01  9.10866675022E-01  9.14680230986E-01
  9.18509709916E-01  9.22355178297E-01  9.26216702890E-01  9.30094350735E-01
  9.33988189153E-01  9.37898285746E-01  9.41824708397E-01  9.45767525273E-01
  9.49726804826E-01  9.53702615794E-01  9.57695027201E-01  9.61704108360E-01
  9.65729928874E-01  9.69772558634E-01  9.73832067827E-01  9.77908526928E-01
  9.82002006711E-01  9.86112578243E-01  9.90240312888E-01  9.94385282309E-01
  9.98547558465E-01  1.00272721362E+00  1.00692432034E+00  1.01113895148E+00
  1.01537118023E+00  1.01962108005E+00  1.02388872473E+00  1.02817418836E+00
  1.03247754534E+00  1.03679887038E+00  1.04113823850E+00  1.04549572505E+00
  1.04987140567E+00  1.05426535633E+00  1.05867765331E+00  1.06310837321E+00
  1.06755759297E+00  1.07202538981E+00  1.07651184131E+00  1.08101702536E+00
  1.08554102017E+00  1.09008390428E+00  1.09464575657E+00  1.09922665623E+00
  1.10382668279E+00  1.10844591612E+00  1.11308443640E+00  1.11774232417E+00
  1.12241966030E+00  1.12711652599E+00  1.13183300277E+00  1.13656917255E+00
  1.14132511753E+00  1.14610092029E+00  1.15089666375E+00  1.15571243116E+00
  1.16054830612E+00  1.16540437261E+00  1.17028071491E+00  1.17517741770E+00
  1.18009456598E+00  1.18503224512E+00  1.18999054084E+00  1.19496953923E+00
  1.19996932673E+00  1.20498999013E+00  1.21003161661E+00  1.21509429370E+00
  1.22017810927E+00  1.22528315161E+00  1.23040950933E+00  1.23555727144E+00
  1.24072652730E+00  1.24591736666E+00  1.25112987964E+00  1.25636415674E+00
  1.26162028882E+00  1.26689836715E+00  1.27219848335E+00  1.27752072943E+00
  1.28286519781E+00  1.28823198126E+00  1.29362117296E+00  1.29903286648E+00