<PP_INFO>
CASTEP .usp generator                                                           
 22-11-2020                                                                     
COMMENT                                                                         
    0        The Pseudo was generated with a Non-Relativistic Calculation
  2.09400000000E+00    Local Potential cutoff radius
</PP_INFO>


<PP_HEADER>
   0                   Version Number
  Pr                   Element
   US                  Ultrasoft pseudopotential
    T                  Nonlinear Core Correction
SLA  PW   PBE  PBE     PBE  Exchange-Correlation functional
   13.00000000000      Z valence
    0.00000000000      Total energy
 43.9517586 10.9879397 Suggested cutoff for wfc and rho
    3                  Max angular momentum component
 3524                  Number of points in mesh
    0    7             Number of Wavefunctions, Number of Projectors
 Wavefunctions         nl  l   occ
</PP_HEADER>


<PP_MESH>
  <PP_R>
  0.00000000000E+00  1.76040645922E-07  3.52816324790E-07  5.30330105631E-07
  7.08585070286E-07  8.87584313465E-07  1.06733094280E-06  1.24782807889E-06
  1.42907885537E-06  1.61108641897E-06  1.79385392954E-06  1.97738456013E-06
  2.16168149705E-06  2.34674793989E-06  2.53258710163E-06  2.71920220864E-06
  2.90659650077E-06  3.09477323139E-06  3.28373566748E-06  3.47348708963E-06
  3.66403079214E-06  3.85537008308E-06  4.04750828429E-06  4.24044873154E-06
  4.43419477447E-06  4.62874977674E-06  4.82411711605E-06  5.02030018419E-06
  5.21730238713E-06  5.41512714505E-06  5.61377789241E-06  5.81325807801E-06
  6.01357116506E-06  6.21472063122E-06  6.41670996867E-06  6.61954268418E-06
  6.82322229915E-06  7.02775234970E-06  7.23313638669E-06  7.43937797582E-06
  7.64648069770E-06  7.85444814785E-06  8.06328393682E-06  8.27299169024E-06
  8.48357504888E-06  8.69503766871E-06  8.90738322095E-06  9.12061539216E-06
  9.33473788430E-06  9.54975441478E-06  9.76566871652E-06  9.98248453805E-06
  1.02002056435E-05  1.04188358129E-05  1.06383788417E-05  1.08588385416E-05
  1.10802187399E-05  1.13025232801E-05  1.15257560216E-05  1.17499208400E-05
  1.19750216271E-05  1.22010622908E-05  1.24280467555E-05  1.26559789619E-05
  1.28848628672E-05  1.31147024450E-05  1.33455016856E-05  1.35772645960E-05
  1.38099951998E-05  1.40436975375E-05  1.42783756664E-05  1.45140336608E-05
  1.47506756121E-05  1.49883056285E-05  1.52269278355E-05  1.54665463761E-05
  1.57071654101E-05  1.59487891151E-05  1.61914216858E-05  1.64350673347E-05
  1.66797302917E-05  1.69254148045E-05  1.71721251384E-05  1.74198655765E-05
  1.76686404200E-05  1.79184539879E-05  1.81693106172E-05  1.84212146630E-05
  1.86741704987E-05  1.89281825159E-05  1.91832551246E-05  1.94393927530E-05
  1.96965998481E-05  1.99548808752E-05  2.02142403184E-05  2.04746826804E-05
  2.07362124829E-05  2.09988342663E-05  2.12625525900E-05  2.15273720324E-05
  2.17932971911E-05  2.20603326830E-05  2.23284831439E-05  2.25977532294E-05
  2.28681476142E-05  2.31396709928E-05  2.34123280790E-05  2.36861236065E-05
  2.39610623287E-05  2.42371490188E-05  2.45143884701E-05  2.47927854957E-05
  2.50723449288E-05  2.53530716231E-05  2.56349704522E-05  2.59180463102E-05
  2.62023041116E-05  2.64877487914E-05  2.67743853054E-05  2.70622186297E-05
  2.73512537616E-05  2.76414957191E-05  2.79329495410E-05  2.82256202873E-05
  2.85195130391E-05  2.88146328988E-05  2.91109849899E-05  2.94085744575E-05
  2.97074064680E-05  3.00074862095E-05  3.03088188918E-05  3.06114097463E-05
  3.09152640263E-05  3.12203870071E-05  3.15267839860E-05  3.18344602824E-05
  3.21434212378E-05  3.24536722163E-05  3.27652186040E-05  3.30780658098E-05
  3.33922192652E-05  3.37076844241E-05  3.40244667633E-05  3.43425717827E-05
  3.46620050048E-05  3.49827719753E-05  3.53048782633E-05  3.56283294607E-05
  3.59531311830E-05  3.62792890693E-05  3.66068087819E-05  3.69356960070E-05
  3.72659564544E-05  3.75975958579E-05  3.79306199750E-05  3.82650345874E-05
  3.86008455010E-05  3.89380585459E-05  3.92766795763E-05  3.96167144712E-05
  3.99581691340E-05  4.03010494927E-05  4.06453615000E-05  4.09911111337E-05
  4.13383043964E-05  4.16869473157E-05  4.20370459444E-05  4.23886063606E-05
  4.27416346680E-05  4.30961369953E-05  4.34521194973E-05  4.38095883541E-05
  4.41685497718E-05  4.45290099823E-05  4.48909752438E-05  4.52544518403E-05
  4.56194460822E-05  4.59859643062E-05  4.63540128754E-05  4.67235981797E-05
  4.70947266354E-05  4.74674046857E-05  4.78416388008E-05  4.82174354778E-05
  4.85948012410E-05  4.89737426417E-05  4.93542662590E-05  4.97363786991E-05
  5.01200865960E-05  5.05053966111E-05  5.08923154340E-05  5.12808497821E-05
  5.16710064006E-05  5.20627920632E-05  5.24562135716E-05  5.28512777563E-05
  5.32479914758E-05  5.36463616177E-05  5.40463950980E-05  5.44480988619E-05
  5.48514798833E-05  5.52565451654E-05  5.56633017405E-05  5.60717566706E-05
  5.64819170467E-05  5.68937899897E-05  5.73073826503E-05  5.77227022088E-05
  5.81397558757E-05  5.85585508915E-05  5.89790945270E-05  5.94013940832E-05
  5.98254568918E-05  6.02512903150E-05  6.06789017458E-05  6.11082986079E-05
  6.15394883562E-05  6.19724784766E-05  6.24072764863E-05  6.28438899339E-05
  6.32823263996E-05  6.37225934950E-05  6.41646988637E-05  6.46086501812E-05
  6.50544551549E-05  6.55021215246E-05  6.59516570623E-05  6.64030695723E-05
  6.68563668917E-05  6.73115568903E-05  6.77686474707E-05  6.82276465684E-05
  6.86885621524E-05  6.91514022245E-05  6.96161748202E-05  7.00828880085E-05
  7.05515498920E-05  7.10221686072E-05  7.14947523247E-05  7.19693092490E-05
  7.24458476190E-05  7.29243757079E-05  7.34049018235E-05  7.38874343083E-05
  7.43719815395E-05  7.48585519296E-05  7.53471539258E-05  7.58377960109E-05
  7.63304867030E-05  7.68252345558E-05  7.73220481586E-05  7.78209361368E-05
  7.83219071514E-05  7.88249699001E-05  7.93301331164E-05  7.98374055707E-05
  8.03467960698E-05  8.08583134572E-05  8.13719666135E-05  8.18877644562E-05
  8.24057159403E-05  8.29258300579E-05  8.34481158389E-05  8.39725823506E-05
  8.44992386984E-05  8.50280940257E-05  8.55591575141E-05  8.60924383833E-05
  8.66279458917E-05  8.71656893364E-05  8.77056780531E-05  8.82479214168E-05
  8.87924288413E-05  8.93392097800E-05  8.98882737255E-05  9.04396302103E-05
  9.09932888065E-05  9.15492591263E-05  9.21075508219E-05  9.26681735860E-05
  9.32311371515E-05  9.37964512921E-05  9.43641258224E-05  9.49341705978E-05
  9.55065955150E-05  9.60814105119E-05  9.66586255679E-05  9.72382507042E-05
  9.78202959836E-05  9.84047715112E-05  9.89916874342E-05  9.95810539420E-05
  1.00172881267E-04  1.00767179683E-04  1.01363959509E-04  1.01963231105E-04
  1.02565004875E-04  1.03169291267E-04  1.03776100772E-04  1.04385443925E-04
  1.04997331304E-04  1.05611773532E-04  1.06228781278E-04  1.06848365253E-04
  1.07470536213E-04  1.08095304961E-04  1.08722682343E-04  1.09352679251E-04
  1.09985306622E-04  1.10620575440E-04  1.11258496733E-04  1.11899081577E-04
  1.12542341093E-04  1.13188286449E-04  1.13836928858E-04  1.14488279583E-04
  1.15142349930E-04  1.15799151257E-04  1.16458694965E-04  1.17120992505E-04
  1.17786055375E-04  1.18453895122E-04  1.19124523339E-04  1.19797951670E-04
  1.20474191807E-04  1.21153255489E-04  1.21835154506E-04  1.22519900696E-04
  1.23207505948E-04  1.23897982198E-04  1.24591341435E-04  1.25287595696E-04
  1.25986757069E-04  1.26688837692E-04  1.27393849753E-04  1.28101805493E-04
  1.28812717203E-04  1.29526597224E-04  1.30243457952E-04  1.30963311830E-04
  1.31686171357E-04  1.32412049082E-04  1.33140957607E-04  1.33872909587E-04
  1.34607917730E-04  1.35345994796E-04  1.36087153599E-04  1.36831407006E-04
  1.37578767938E-04  1.38329249371E-04  1.39082864334E-04  1.39839625909E-04
  1.40599547237E-04  1.41362641508E-04  1.42128921973E-04  1.42898401934E-04
  1.43671094750E-04  1.44447013836E-04  1.45226172663E-04  1.46008584759E-04
  1.46794263706E-04  1.47583223144E-04  1.48375476772E-04  1.49171038344E-04
  1.49969921671E-04  1.50772140622E-04  1.51577709126E-04  1.52386641169E-04
  1.53198950793E-04  1.54014652101E-04  1.54833759256E-04  1.55656286477E-04
  1.56482248045E-04  1.57311658299E-04  1.58144531639E-04  1.58980882524E-04
  1.59820725475E-04  1.60664075072E-04  1.61510945957E-04  1.62361352831E-04
  1.63215310460E-04  1.64072833669E-04  1.64933937346E-04  1.65798636439E-04
  1.66666945962E-04  1.67538880990E-04  1.68414456659E-04  1.69293688171E-04
  1.70176590791E-04  1.71063179847E-04  1.71953470730E-04  1.72847478897E-04
  1.73745219870E-04  1.74646709234E-04  1.75551962640E-04  1.76460995804E-04
  1.77373824509E-04  1.78290464601E-04  1.79210931995E-04  1.80135242671E-04
  1.81063412676E-04  1.81995458124E-04  1.82931395197E-04  1.83871240143E-04
  1.84815009280E-04  1.85762718992E-04  1.86714385733E-04  1.87670026024E-04
  1.88629656457E-04  1.89593293691E-04  1.90560954458E-04  1.91532655555E-04
  1.92508413854E-04  1.93488246295E-04  1.94472169887E-04  1.95460201715E-04
  1.96452358930E-04  1.97448658758E-04  1.98449118496E-04  1.99453755512E-04
  2.00462587250E-04  2.01475631222E-04  2.02492905016E-04  2.03514426295E-04
  2.04540212791E-04  2.05570282315E-04  2.06604652749E-04  2.07643342052E-04
  2.08686368255E-04  2.09733749468E-04  2.10785503873E-04  2.11841649731E-04
  2.12902205377E-04  2.13967189225E-04  2.15036619762E-04  2.16110515556E-04
  2.17188895251E-04  2.18271777569E-04  2.19359181309E-04  2.20451125351E-04
  2.21547628651E-04  2.22648710247E-04  2.23754389254E-04  2.24864684868E-04
  2.25979616365E-04  2.27099203102E-04  2.28223464515E-04  2.29352420124E-04
  2.30486089529E-04  2.31624492410E-04  2.32767648532E-04  2.33915577742E-04
  2.35068299969E-04  2.36225835225E-04  2.37388203607E-04  2.38555425295E-04
  2.39727520552E-04  2.40904509728E-04  2.42086413257E-04  2.43273251658E-04
  2.44465045535E-04  2.45661815581E-04  2.46863582571E-04  2.48070367370E-04
  2.49282190929E-04  2.50499074287E-04  2.51721038570E-04  2.52948104993E-04
  2.54180294859E-04  2.55417629561E-04  2.56660130580E-04  2.57907819487E-04
  2.59160717943E-04  2.60418847700E-04  2.61682230602E-04  2.62950888580E-04
  2.64224843662E-04  2.65504117964E-04  2.66788733696E-04  2.68078713160E-04
  2.69374078751E-04  2.70674852960E-04  2.71981058368E-04  2.73292717653E-04
  2.74609853587E-04  2.75932489036E-04  2.77260646964E-04  2.78594350428E-04
  2.79933622584E-04  2.81278486681E-04  2.82628966070E-04  2.83985084195E-04
  2.85346864601E-04  2.86714330929E-04  2.88087506921E-04  2.89466416416E-04
  2.90851083353E-04  2.92241531772E-04  2.93637785813E-04  2.95039869716E-04
  2.96447807823E-04  2.97861624578E-04  2.99281344525E-04  3.00706992314E-04
  3.02138592694E-04  3.03576170520E-04  3.05019750750E-04  3.06469358446E-04
  3.07925018776E-04  3.09386757010E-04  3.10854598526E-04  3.12328568808E-04
  3.13808693446E-04  3.15294998135E-04  3.16787508681E-04  3.18286250995E-04
  3.19791251096E-04  3.21302535114E-04  3.22820129285E-04  3.24344059957E-04
  3.25874353587E-04  3.27411036743E-04  3.28954136103E-04  3.30503678458E-04
  3.32059690708E-04  3.33622199869E-04  3.35191233067E-04  3.36766817542E-04
  3.38348980649E-04  3.39937749855E-04  3.41533152743E-04  3.43135217011E-04
  3.44743970474E-04  3.46359441060E-04  3.47981656816E-04  3.49610645906E-04
  3.51246436610E-04  3.52889057329E-04  3.54538536579E-04  3.56194902998E-04
  3.57858185341E-04  3.59528412486E-04  3.61205613430E-04  3.62889817290E-04
  3.64581053306E-04  3.66279350840E-04  3.67984739377E-04  3.69697248523E-04
  3.71416908011E-04  3.73143747694E-04  3.74877797554E-04  3.76619087695E-04
  3.78367648348E-04  3.80123509870E-04  3.81886702745E-04  3.83657257583E-04
  3.85435205124E-04  3.87220576235E-04  3.89013401912E-04  3.90813713280E-04
  3.92621541594E-04  3.94436918242E-04  3.96259874739E-04  3.98090442735E-04
  3.99928654010E-04  4.01774540477E-04  4.03628134183E-04  4.05489467309E-04
  4.07358572170E-04  4.09235481215E-04  4.11120227030E-04  4.13012842335E-04
  4.14913359990E-04  4.16821812989E-04  4.18738234464E-04  4.20662657688E-04
  4.22595116070E-04  4.24535643160E-04  4.26484272648E-04  4.28441038365E-04
  4.30405974281E-04  4.32379114510E-04  4.34360493309E-04  4.36350145077E-04
  4.38348104355E-04  4.40354405831E-04  4.42369084337E-04  4.44392174849E-04
  4.46423712491E-04  4.48463732533E-04  4.50512270391E-04  4.52569361631E-04
  4.54635041966E-04  4.56709347259E-04  4.58792313521E-04  4.60883976916E-04
  4.62984373757E-04  4.65093540510E-04  4.67211513791E-04  4.69338330372E-04
  4.71474027176E-04  4.73618641282E-04  4.75772209922E-04  4.77934770486E-04
  4.80106360516E-04  4.82287017715E-04  4.84476779941E-04  4.86675685212E-04
  4.88883771702E-04  4.91101077746E-04  4.93327641840E-04  4.95563502639E-04
  4.97808698960E-04  5.00063269782E-04  5.02327254248E-04  5.04600691662E-04
  5.06883621494E-04  5.09176083379E-04  5.11478117115E-04  5.13789762669E-04
  5.16111060175E-04  5.18442049931E-04  5.20782772407E-04  5.23133268240E-04
  5.25493578238E-04  5.27863743379E-04  5.30243804810E-04  5.32633803853E-04
  5.35033782000E-04  5.37443780919E-04  5.39863842449E-04  5.42294008606E-04
  5.44734321579E-04  5.47184823736E-04  5.49645557619E-04  5.52116565951E-04
  5.54597891631E-04  5.57089577736E-04  5.59591667526E-04  5.62104204441E-04
  5.64627232099E-04  5.67160794305E-04  5.69704935043E-04  5.72259698482E-04
  5.74825128977E-04  5.77401271066E-04  5.79988169474E-04  5.82585869112E-04
  5.85194415080E-04  5.87813852664E-04  5.90444227341E-04  5.93085584777E-04
  5.95737970830E-04  5.98401431548E-04  6.01076013171E-04  6.03761762133E-04
  6.06458725062E-04  6.09166948780E-04  6.11886480306E-04  6.14617366852E-04
  6.17359655831E-04  6.20113394852E-04  6.22878631723E-04  6.25655414451E-04
  6.28443791245E-04  6.31243810513E-04  6.34055520869E-04  6.36878971125E-04
  6.39714210300E-04  6.42561287618E-04  6.45420252506E-04  6.48291154600E-04
  6.51174043741E-04  6.54068969981E-04  6.56975983578E-04  6.59895135001E-04
  6.62826474930E-04  6.65770054256E-04  6.68725924084E-04  6.71694135730E-04
  6.74674740727E-04  6.77667790820E-04  6.80673337973E-04  6.83691434364E-04
  6.86722132393E-04  6.89765484675E-04  6.92821544046E-04  6.95890363563E-04
  6.98971996504E-04  7.02066496370E-04  7.05173916884E-04  7.08294311996E-04
  7.11427735878E-04  7.14574242931E-04  7.17733887782E-04  7.20906725285E-04
  7.24092810524E-04  7.27292198814E-04  7.30504945700E-04  7.33731106958E-04
  7.36970738598E-04  7.40223896865E-04  7.43490638236E-04  7.46771019426E-04
  7.50065097387E-04  7.53372929306E-04  7.56694572612E-04  7.60030084972E-04
  7.63379524295E-04  7.66742948730E-04  7.70120416671E-04  7.73511986754E-04
  7.76917717861E-04  7.80337669119E-04  7.83771899901E-04  7.87220469832E-04
  7.90683438781E-04  7.94160866869E-04  7.97652814469E-04  8.01159342205E-04
  8.04680510954E-04  8.08216381848E-04  8.11767016273E-04  8.15332475873E-04
  8.18912822547E-04  8.22508118455E-04  8.26118426016E-04  8.29743807907E-04
  8.33384327071E-04  8.37040046710E-04  8.40711030292E-04  8.44397341549E-04
  8.48099044481E-04  8.51816203352E-04  8.55548882697E-04  8.59297147319E-04
  8.63061062293E-04  8.66840692964E-04  8.70636104951E-04  8.74447364147E-04
  8.78274536720E-04  8.82117689113E-04  8.85976888048E-04  8.89852200525E-04
  8.93743693824E-04  8.97651435506E-04  9.01575493413E-04  9.05515935672E-04
  9.09472830694E-04  9.13446247173E-04  9.17436254094E-04  9.21442920728E-04
  9.25466316634E-04  9.29506511664E-04  9.33563575959E-04  9.37637579956E-04
  9.41728594383E-04  9.45836690265E-04  9.49961938924E-04  9.54104411978E-04
  9.58264181345E-04  9.62441319244E-04  9.66635898194E-04  9.70847991019E-04
  9.75077670845E-04  9.79325011103E-04  9.83590085533E-04  9.87872968181E-04
  9.92173733403E-04  9.96492455866E-04  1.00082921055E-03  1.00518407273E-03
  1.00955711804E-03  1.01394842238E-03  1.01835806199E-03  1.02278611343E-03
  1.02723265358E-03  1.03169775963E-03  1.03618150910E-03  1.04068397984E-03
  1.04520525001E-03  1.04974539811E-03  1.05430450295E-03  1.05888264370E-03
  1.06347989983E-03  1.06809635116E-03  1.07273207783E-03  1.07738716032E-03
  1.08206167946E-03  1.08675571639E-03  1.09146935261E-03  1.09620266996E-03
  1.10095575061E-03  1.10572867708E-03  1.11052153223E-03  1.11533439927E-03
  1.12016736177E-03  1.12502050362E-03  1.12989390907E-03  1.13478766275E-03
  1.13970184961E-03  1.14463655496E-03  1.14959186448E-03  1.15456786420E-03
  1.15956464050E-03  1.16458228015E-03  1.16962087024E-03  1.17468049825E-03
  1.17976125203E-03  1.18486321978E-03  1.18998649008E-03  1.19513115187E-03
  1.20029729448E-03  1.20548500758E-03  1.21069438126E-03  1.21592550594E-03
  1.22117847244E-03  1.22645337197E-03  1.23175029609E-03  1.23706933678E-03
  1.24241058638E-03  1.24777413761E-03  1.25316008359E-03  1.25856851784E-03
  1.26399953424E-03  1.26945322708E-03  1.27492969106E-03  1.28042902123E-03
  1.28595131309E-03  1.29149666250E-03  1.29706516573E-03  1.30265691947E-03
  1.30827202079E-03  1.31391056717E-03  1.31957265651E-03  1.32525838711E-03
  1.33096785768E-03  1.33670116733E-03  1.34245841562E-03  1.34823970248E-03
  1.35404512830E-03  1.35987479385E-03  1.36572880035E-03  1.37160724943E-03
  1.37751024315E-03  1.38343788399E-03  1.38939027486E-03  1.39536751910E-03
  1.40136972048E-03  1.40739698321E-03  1.41344941192E-03  1.41952711170E-03
  1.42563018806E-03  1.43175874696E-03  1.43791289479E-03  1.44409273841E-03
  1.45029838508E-03  1.45652994257E-03  1.46278751904E-03  1.46907122315E-03
  1.47538116397E-03  1.48171745107E-03  1.48808019444E-03  1.49446950455E-03
  1.50088549233E-03  1.50732826916E-03  1.51379794690E-03  1.52029463787E-03
  1.52681845486E-03  1.53336951113E-03  1.53994792041E-03  1.54655379691E-03
  1.55318725532E-03  1.55984841080E-03  1.56653737900E-03  1.57325427605E-03
  1.57999921856E-03  1.58677232362E-03  1.59357370883E-03  1.60040349227E-03
  1.60726179250E-03  1.61414872861E-03  1.62106442015E-03  1.62800898718E-03
  1.63498255028E-03  1.64198523050E-03  1.64901714944E-03  1.65607842916E-03
  1.66316919226E-03  1.67028956185E-03  1.67743966154E-03  1.68461961546E-03
  1.69182954827E-03  1.69906958514E-03  1.70633985176E-03  1.71364047436E-03
  1.72097157968E-03  1.72833329500E-03  1.73572574813E-03  1.74314906741E-03
  1.75060338171E-03  1.75808882045E-03  1.76560551358E-03  1.77315359162E-03
  1.78073318559E-03  1.78834442708E-03  1.79598744825E-03  1.80366238177E-03
  1.81136936090E-03  1.81910851944E-03  1.82687999174E-03  1.83468391274E-03
  1.84252041790E-03  1.85038964330E-03  1.85829172553E-03  1.86622680180E-03
  1.87419500986E-03  1.88219648806E-03  1.89023137530E-03  1.89829981108E-03
  1.90640193548E-03  1.91453788916E-03  1.92270781337E-03  1.93091184994E-03
  1.93915014132E-03  1.94742283053E-03  1.95573006118E-03  1.96407197751E-03
  1.97244872434E-03  1.98086044709E-03  1.98930729181E-03  1.99778940514E-03
  2.00630693434E-03  2.01486002728E-03  2.02344883247E-03  2.03207349899E-03
  2.04073417661E-03  2.04943101566E-03  2.05816416713E-03  2.06693378266E-03
  2.07574001448E-03  2.08458301548E-03  2.09346293919E-03  2.10237993977E-03
  2.11133417203E-03  2.12032579143E-03  2.12935495407E-03  2.13842181670E-03
  2.14752653675E-03  2.15666927227E-03  2.16585018200E-03  2.17506942533E-03
  2.18432716231E-03  2.19362355367E-03  2.20295876080E-03  2.21233294578E-03
  2.22174627134E-03  2.23119890093E-03  2.24069099863E-03  2.25022272926E-03
  2.25979425828E-03  2.26940575188E-03  2.27905737692E-03  2.28874930096E-03
  2.29848169226E-03  2.30825471980E-03  2.31806855324E-03  2.32792336295E-03
  2.33781932004E-03  2.34775659631E-03  2.35773536427E-03  2.36775579718E-03
  2.37781806899E-03  2.38792235440E-03  2.39806882884E-03  2.40825766845E-03
  2.41848905013E-03  2.42876315150E-03  2.43908015093E-03  2.44944022755E-03
  2.45984356121E-03  2.47029033252E-03  2.48078072286E-03  2.49131491435E-03
  2.50189308987E-03  2.51251543307E-03  2.52318212837E-03  2.53389336096E-03
  2.54464931680E-03  2.55545018261E-03  2.56629614592E-03  2.57718739502E-03
  2.58812411900E-03  2.59910650774E-03  2.61013475189E-03  2.62120904292E-03
  2.63232957310E-03  2.64349653548E-03  2.65471012395E-03  2.66597053318E-03
  2.67727795866E-03  2.68863259671E-03  2.70003464444E-03  2.71148429983E-03
  2.72298176164E-03  2.73452722948E-03  2.74612090380E-03  2.75776298588E-03
  2.76945367783E-03  2.78119318262E-03  2.79298170407E-03  2.80481944682E-03
  2.81670661640E-03  2.82864341919E-03  2.84063006242E-03  2.85266675419E-03
  2.86475370347E-03  2.87689112011E-03  2.88907921482E-03  2.90131819921E-03
  2.91360828576E-03  2.92594968783E-03  2.93834261969E-03  2.95078729649E-03
  2.96328393429E-03  2.97583275005E-03  2.98843396161E-03  3.00108778777E-03
  3.01379444819E-03  3.02655416349E-03  3.03936715518E-03  3.05223364572E-03
  3.06515385848E-03  3.07812801776E-03  3.09115634883E-03  3.10423907786E-03
  3.11737643198E-03  3.13056863927E-03  3.14381592877E-03  3.15711853047E-03
  3.17047667530E-03  3.18389059519E-03  3.19736052302E-03  3.21088669263E-03
  3.22446933886E-03  3.23810869752E-03  3.25180500540E-03  3.26555850029E-03
  3.27936942096E-03  3.29323800719E-03  3.30716449974E-03  3.32114914041E-03
  3.33519217198E-03  3.34929383825E-03  3.36345438404E-03  3.37767405520E-03
  3.39195309859E-03  3.40629176212E-03  3.42069029473E-03  3.43514894638E-03
  3.44966796809E-03  3.46424761194E-03  3.47888813104E-03  3.49358977957E-03
  3.50835281276E-03  3.52317748692E-03  3.53806405942E-03  3.55301278871E-03
  3.56802393431E-03  3.58309775684E-03  3.59823451800E-03  3.61343448057E-03
  3.62869790845E-03  3.64402506662E-03  3.65941622119E-03  3.67487163935E-03
  3.69039158944E-03  3.70597634090E-03  3.72162616429E-03  3.73734133132E-03
  3.75312211482E-03  3.76896878876E-03  3.78488162826E-03  3.80086090957E-03
  3.81690691013E-03  3.83301990851E-03  3.84920018444E-03  3.86544801884E-03
  3.88176369379E-03  3.89814749254E-03  3.91459969954E-03  3.93112060041E-03
  3.94771048198E-03  3.96436963227E-03  3.98109834049E-03  3.99789689708E-03
  4.01476559368E-03  4.03170472315E-03  4.04871457957E-03  4.06579545825E-03
  4.08294765574E-03  4.10017146982E-03  4.11746719951E-03  4.13483514508E-03
  4.15227560806E-03  4.16978889125E-03  4.18737529869E-03  4.20503513569E-03
  4.22276870886E-03  4.24057632607E-03  4.25845829648E-03  4.27641493054E-03
  4.29444654000E-03  4.31255343790E-03  4.33073593862E-03  4.34899435780E-03
  4.36732901245E-03  4.38574022086E-03  4.40422830269E-03  4.42279357890E-03
  4.44143637180E-03  4.46015700507E-03  4.47895580371E-03  4.49783309408E-03
  4.51678920393E-03  4.53582446234E-03  4.55493919980E-03  4.57413374816E-03
  4.59340844065E-03  4.61276361190E-03  4.63219959796E-03  4.65171673623E-03
  4.67131536557E-03  4.69099582623E-03  4.71075845988E-03  4.73060360963E-03
  4.75053162001E-03  4.77054283700E-03  4.79063760800E-03  4.81081628190E-03
  4.83107920900E-03  4.85142674111E-03  4.87185923147E-03  4.89237703483E-03
  4.91298050738E-03  4.93367000684E-03  4.95444589239E-03  4.97530852472E-03
  4.99625826604E-03  5.01729548006E-03  5.03842053200E-03  5.05963378863E-03
  5.08093561823E-03  5.10232639061E-03  5.12380647716E-03  5.14537625079E-03
  5.16703608597E-03  5.18878635874E-03  5.21062744672E-03  5.23255972909E-03
  5.25458358662E-03  5.27669940166E-03  5.29890755818E-03  5.32120844174E-03
  5.34360243949E-03  5.36608994023E-03  5.38867133436E-03  5.41134701393E-03
  5.43411737261E-03  5.45698280572E-03  5.47994371022E-03  5.50300048476E-03
  5.52615352960E-03  5.54940324673E-03  5.57275003979E-03  5.59619431409E-03
  5.61973647666E-03  5.64337693622E-03  5.66711610319E-03  5.69095438971E-03
  5.71489220964E-03  5.73892997857E-03  5.76306811383E-03  5.78730703447E-03
  5.81164716131E-03  5.83608891693E-03  5.86063272566E-03  5.88527901361E-03
  5.91002820866E-03  5.93488074050E-03  5.95983704059E-03  5.98489754220E-03
  6.01006268040E-03  6.03533289210E-03  6.06070861601E-03  6.08619029269E-03
  6.11177836452E-03  6.13747327575E-03  6.16327547246E-03  6.18918540261E-03
  6.21520351603E-03  6.24133026443E-03  6.26756610138E-03  6.29391148238E-03
  6.32036686481E-03  6.34693270797E-03  6.37360947307E-03  6.40039762325E-03
  6.42729762358E-03  6.45430994107E-03  6.48143504470E-03  6.50867340538E-03
  6.53602549600E-03  6.56349179143E-03  6.59107276851E-03  6.61876890608E-03
  6.64658068497E-03  6.67450858804E-03  6.70255310013E-03  6.73071470814E-03
  6.75899390097E-03  6.78739116960E-03  6.81590700703E-03  6.84454190833E-03
  6.87329637062E-03  6.90217089313E-03  6.93116597715E-03  6.96028212605E-03
  6.98951984534E-03  7.01887964262E-03  7.04836202759E-03  7.07796751212E-03
  7.10769661018E-03  7.13754983790E-03  7.16752771358E-03  7.19763075766E-03
  7.22785949276E-03  7.25821444370E-03  7.28869613746E-03  7.31930510324E-03
  7.35004187246E-03  7.38090697873E-03  7.41190095790E-03  7.44302434808E-03
  7.47427768959E-03  7.50566152503E-03  7.53717639926E-03  7.56882285942E-03
  7.60060145491E-03  7.63251273746E-03  7.66455726108E-03  7.69673558210E-03
  7.72904825917E-03  7.76149585327E-03  7.79407892775E-03  7.82679804826E-03
  7.85965378285E-03  7.89264670195E-03  7.92577737833E-03  7.95904638720E-03
  7.99245430612E-03  8.02600171511E-03  8.05968919659E-03  8.09351733541E-03
  8.12748671886E-03  8.16159793669E-03  8.19585158111E-03  8.23024824681E-03
  8.26478853094E-03  8.29947303317E-03  8.33430235565E-03  8.36927710308E-03
  8.40439788263E-03  8.43966530407E-03  8.47507997965E-03  8.51064252424E-03
  8.54635355522E-03  8.58221369259E-03  8.61822355891E-03  8.65438377937E-03
  8.69069498174E-03  8.72715779642E-03  8.76377285646E-03  8.80054079753E-03
  8.83746225796E-03  8.87453787875E-03  8.91176830359E-03  8.94915417882E-03
  8.98669615351E-03  9.02439487944E-03  9.06225101109E-03  9.10026520570E-03
  9.13843812322E-03  9.17677042639E-03  9.21526278070E-03  9.25391585442E-03
  9.29273031861E-03  9.33170684713E-03  9.37084611666E-03  9.41014880671E-03
  9.44961559961E-03  9.48924718054E-03  9.52904423757E-03  9.56900746161E-03
  9.60913754647E-03  9.64943518885E-03  9.68990108836E-03  9.73053594755E-03
  9.77134047187E-03  9.81231536974E-03  9.85346135254E-03  9.89477913459E-03
  9.93626943323E-03  9.97793296878E-03  1.00197704645E-02  1.00617826469E-02
  1.01039702452E-02  1.01463339919E-02  1.01888746224E-02  1.02315928754E-02
  1.02744894924E-02  1.03175652182E-02  1.03608208007E-02  1.04042569907E-02
  1.04478745425E-02  1.04916742132E-02  1.05356567632E-02  1.05798229562E-02
  1.06241735589E-02  1.06687093414E-02  1.07134310767E-02  1.07583395413E-02
  1.08034355149E-02  1.08487197804E-02  1.08941931240E-02  1.09398563351E-02
  1.09857102066E-02  1.10317555344E-02  1.10779931180E-02  1.11244237601E-02
  1.11710482669E-02  1.12178674477E-02  1.12648821154E-02  1.13120930863E-02
  1.13595011799E-02  1.14071072193E-02  1.14549120311E-02  1.15029164451E-02
  1.15511212948E-02  1.15995274171E-02  1.16481356523E-02  1.16969468444E-02
  1.17459618407E-02  1.17951814923E-02  1.18446066535E-02  1.18942381826E-02
  1.19440769412E-02  1.19941237945E-02  1.20443796113E-02  1.20948452643E-02
  1.21455216295E-02  1.21964095867E-02  1.22475100194E-02  1.22988238148E-02
  1.23503518638E-02  1.24020950608E-02  1.24540543043E-02  1.25062304963E-02
  1.25586245427E-02  1.26112373530E-02  1.26640698407E-02  1.27171229230E-02
  1.27703975210E-02  1.28238945596E-02  1.28776149675E-02  1.29315596775E-02
  1.29857296260E-02  1.30401257535E-02  1.30947490043E-02  1.31496003269E-02
  1.32046806734E-02  1.32599910002E-02  1.33155322675E-02  1.33713054395E-02
  1.34273114846E-02  1.34835513750E-02  1.35400260871E-02  1.35967366015E-02
  1.36536839026E-02  1.37108689792E-02  1.37682928240E-02  1.38259564341E-02
  1.38838608104E-02  1.39420069582E-02  1.40003958872E-02  1.40590286109E-02
  1.41179061473E-02  1.41770295185E-02  1.42363997511E-02  1.42960178757E-02
  1.43558849274E-02  1.44160019456E-02  1.44763699739E-02  1.45369900604E-02
  1.45978632575E-02  1.46589906222E-02  1.47203732155E-02  1.47820121032E-02
  1.48439083555E-02  1.49060630468E-02  1.49684772563E-02  1.50311520675E-02
  1.50940885686E-02  1.51572878522E-02  1.52207510155E-02  1.52844791603E-02
  1.53484733930E-02  1.54127348246E-02  1.54772645708E-02  1.55420637519E-02
  1.56071334929E-02  1.56724749233E-02  1.57380891778E-02  1.58039773953E-02
  1.58701407198E-02  1.59365802999E-02  1.60032972892E-02  1.60702928459E-02
  1.61375681331E-02  1.62051243188E-02  1.62729625758E-02  1.63410840819E-02
  1.64094900198E-02  1.64781815771E-02  1.65471599463E-02  1.66164263250E-02
  1.66859819156E-02  1.67558279259E-02  1.68259655684E-02  1.68963960607E-02
  1.69671206256E-02  1.70381404910E-02  1.71094568899E-02  1.71810710603E-02
  1.72529842456E-02  1.73251976943E-02  1.73977126601E-02  1.74705304020E-02
  1.75436521841E-02  1.76170792759E-02  1.76908129522E-02  1.77648544930E-02
  1.78392051839E-02  1.79138663157E-02  1.79888391845E-02  1.80641250920E-02
  1.81397253452E-02  1.82156412566E-02  1.82918741442E-02  1.83684253315E-02
  1.84452961475E-02  1.85224879268E-02  1.86000020095E-02  1.86778397413E-02
  1.87560024737E-02  1.88344915635E-02  1.89133083735E-02  1.89924542720E-02
  1.90719306331E-02  1.91517388365E-02  1.92318802678E-02  1.93123563184E-02
  1.93931683855E-02  1.94743178719E-02  1.95558061866E-02  1.96376347443E-02
  1.97198049657E-02  1.98023182772E-02  1.98851761114E-02  1.99683799069E-02
  2.00519311081E-02  2.01358311656E-02  2.02200815360E-02  2.03046836820E-02
  2.03896390723E-02  2.04749491819E-02  2.05606154918E-02  2.06466394894E-02
  2.07330226681E-02  2.08197665276E-02  2.09068725738E-02  2.09943423191E-02
  2.10821772820E-02  2.11703789875E-02  2.12589489667E-02  2.13478887574E-02
  2.14371999038E-02  2.15268839562E-02  2.16169424718E-02  2.17073770140E-02
  2.17981891530E-02  2.18893804652E-02  2.19809525340E-02  2.20729069490E-02